HEADER
"PSFversion" "1.00"
"simulator" "spectre"
"version" "20.1.0.068"
"date" "1:19:54 PM, Sun Mar 21, 2021"
"design" ""
"analysis type" "ac"
"analysis name" "impedance"
"analysis description" "AC Analysis `impedance': freq = (100 Hz -> 1 GHz)"
"xVecSorted" "ascending"
"tolerance.relative" 0.00100000
"start" 100.000
"stop" 1.00000e+09
"operating point producer" "impedance"
TYPE
"sweep" FLOAT DOUBLE PROP(
"key" "sweep"
)
"V" COMPLEX DOUBLE PROP(
"units" "V"
"key" "node"
"tolerance" 1.00000e-06
)
"I" COMPLEX DOUBLE PROP(
"units" "A"
"key" "branch"
"tolerance" 1.00000e-12
)
"MMF" COMPLEX DOUBLE PROP(
"units" "A*turn"
"key" "node"
"tolerance" 1.00000e-12
)
"Wb" COMPLEX DOUBLE PROP(
"units" "Wb"
"key" "node"
"tolerance" 1.00000e-09
)
"Temp" COMPLEX DOUBLE PROP(
"units" "C"
"key" "node"
"tolerance" 0.000100000
)
"Pwr" COMPLEX DOUBLE PROP(
"units" "W"
"key" "node"
"tolerance" 1.00000e-09
)
"U" COMPLEX DOUBLE PROP(
"units" ""
"key" "node"
"tolerance" 1.00000e-06
)
"V/Sec" COMPLEX DOUBLE PROP(
"units" "V/s"
"key" "node"
"tolerance" 0.000100000
)
"I/Sec" COMPLEX DOUBLE PROP(
"units" "A/s"
"key" "node"
"tolerance" 1.00000e-06
)
"1/Sec" COMPLEX DOUBLE PROP(
"units" "1/s"
"key" "node"
"tolerance" 0.000100000
)
"HOD" COMPLEX DOUBLE PROP(
"units" ""
"key" "node"
"tolerance" 0.0100000
)
"Q" COMPLEX DOUBLE PROP(
"units" "Coul"
"key" "node"
"tolerance" 1.00000e-15
)
SWEEP
"freq" "sweep" PROP(
"sweep_direction" 0
"units" "Hz"
"plot" 0
"grid" 3
)
TRACE
"1" "V"
"2" "V"
"L1.7" "V"
"L1.8" "V"
"L1.9" "V"
"L1.3" "V"
"L1.4" "V"
"L1.5" "V"
"L1.6" "V"
"L2:1" "I"
"L1.L0:1" "I"
"L1.L1:1" "I"
"L1.L2:1" "I"
"L1.L3:1" "I"
"L1.L4:1" "I"
"L1.L5:1" "I"
VALUE
"freq" 1.000000000000000e+02
"1" (-0.0360000 -0.000282743)
"2" (-0.0359976 -0.000277830)
"L1.7" (-7.50140e-10 -0.000282743)
"L1.8" (6.25984e-19 2.36640e-14)
"L1.9" (1.87335e-11 -5.09426e-17)
"L1.3" (-7.50140e-10 -0.000113097)
"L1.4" (-1.09932e-10 -6.91150e-05)
"L1.5" (-4.31701e-09 -0.000113097)
"L1.6" (-4.59714e-10 -6.91150e-05)
"L2:1" (-0.999933 5.17555e-07)
"L1.L0:1" (-1.00000 1.84289e-17)
"L1.L1:1" (-1.00000 1.45560e-05)
"L1.L2:1" (-1.00000 1.59056e-06)
"L1.L3:1" (-1.39234e-09 -1.45560e-05)
"L1.L4:1" (-1.05795e-11 -1.59056e-06)
"L1.L5:1" (-1.88312e-12 4.98142e-17)
"freq" 1.023292992280754e+02
"1" (-0.0360000 -0.000289329)
"2" (-0.0359976 -0.000284302)
"L1.7" (-7.85493e-10 -0.000289329)
"L1.8" (6.86378e-19 2.53564e-14)
"L1.9" (1.96164e-11 -5.45860e-17)
"L1.3" (-7.85493e-10 -0.000115732)
"L1.4" (-1.15113e-10 -7.07249e-05)
"L1.5" (-4.52047e-09 -0.000115732)
"L1.6" (-4.81380e-10 -7.07249e-05)
"L2:1" (-0.999933 5.29610e-07)
"L1.L0:1" (-1.00000 1.97469e-17)
"L1.L1:1" (-1.00000 1.48951e-05)
"L1.L2:1" (-1.00000 1.62761e-06)
"L1.L3:1" (-1.45796e-09 -1.48951e-05)
"L1.L4:1" (-1.10781e-11 -1.62761e-06)
"L1.L5:1" (-1.97187e-12 5.33769e-17)
"freq" 1.047128548050899e+02
"1" (-0.0360000 -0.000296069)
"2" (-0.0359976 -0.000290924)
"L1.7" (-8.22512e-10 -0.000296069)
"L1.8" (7.52598e-19 2.71699e-14)
"L1.9" (2.05409e-11 -5.84899e-17)
"L1.3" (-8.22512e-10 -0.000118427)
"L1.4" (-1.20538e-10 -7.23723e-05)
"L1.5" (-4.73351e-09 -0.000118427)
"L1.6" (-5.04067e-10 -7.23723e-05)
"L2:1" (-0.999933 5.41946e-07)
"L1.L0:1" (-1.00000 2.11592e-17)
"L1.L1:1" (-1.00000 1.52420e-05)
"L1.L2:1" (-1.00000 1.66552e-06)
"L1.L3:1" (-1.52667e-09 -1.52420e-05)
"L1.L4:1" (-1.16002e-11 -1.66552e-06)
"L1.L5:1" (-2.06480e-12 5.71944e-17)
"freq" 1.071519305237606e+02
"1" (-0.0360000 -0.000302965)
"2" (-0.0359976 -0.000297701)
"L1.7" (-8.61276e-10 -0.000302965)
"L1.8" (8.25208e-19 2.91131e-14)
"L1.9" (2.15089e-11 -6.26731e-17)
"L1.3" (-8.61276e-10 -0.000121186)
"L1.4" (-1.26218e-10 -7.40581e-05)
"L1.5" (-4.95659e-09 -0.000121186)
"L1.6" (-5.27823e-10 -7.40581e-05)
"L2:1" (-0.999933 5.54570e-07)
"L1.L0:1" (-1.00000 2.26725e-17)
"L1.L1:1" (-1.00000 1.55971e-05)
"L1.L2:1" (-1.00000 1.70432e-06)
"L1.L3:1" (-1.59862e-09 -1.55971e-05)
"L1.L4:1" (-1.21469e-11 -1.70432e-06)
"L1.L5:1" (-2.16211e-12 6.12849e-17)
"freq" 1.096478196143185e+02
"1" (-0.0360000 -0.000310022)
"2" (-0.0359976 -0.000304635)
"L1.7" (-9.01866e-10 -0.000310022)
"L1.8" (9.04822e-19 3.11952e-14)
"L1.9" (2.25226e-11 -6.71554e-17)
"L1.3" (-9.01866e-10 -0.000124009)
"L1.4" (-1.32167e-10 -7.57831e-05)
"L1.5" (-5.19019e-09 -0.000124009)
"L1.6" (-5.52698e-10 -7.57831e-05)
"L2:1" (-0.999933 5.67487e-07)
"L1.L0:1" (-1.00000 2.42940e-17)
"L1.L1:1" (-1.00000 1.59604e-05)
"L1.L2:1" (-1.00000 1.74402e-06)
"L1.L3:1" (-1.67396e-09 -1.59604e-05)
"L1.L4:1" (-1.27194e-11 -1.74402e-06)
"L1.L5:1" (-2.26401e-12 6.56679e-17)
"freq" 1.122018454301963e+02
"1" (-0.0360000 -0.000317243)
"2" (-0.0359976 -0.000311731)
"L1.7" (-9.44370e-10 -0.000317243)
"L1.8" (9.92118e-19 3.34263e-14)
"L1.9" (2.35841e-11 -7.19584e-17)
"L1.3" (-9.44370e-10 -0.000126897)
"L1.4" (-1.38396e-10 -7.75483e-05)
"L1.5" (-5.43480e-09 -0.000126897)
"L1.6" (-5.78746e-10 -7.75483e-05)
"L2:1" (-0.999933 5.80706e-07)
"L1.L0:1" (-1.00000 2.60315e-17)
"L1.L1:1" (-1.00000 1.63321e-05)
"L1.L2:1" (-1.00000 1.78464e-06)
"L1.L3:1" (-1.75286e-09 -1.63321e-05)
"L1.L4:1" (-1.33188e-11 -1.78464e-06)
"L1.L5:1" (-2.37071e-12 7.03645e-17)
"freq" 1.148153621496882e+02
"1" (-0.0360000 -0.000324633)
"2" (-0.0359976 -0.000318992)
"L1.7" (-9.88877e-10 -0.000324633)
"L1.8" (1.08784e-18 3.58169e-14)
"L1.9" (2.46956e-11 -7.71048e-17)
"L1.3" (-9.88877e-10 -0.000129853)
"L1.4" (-1.44918e-10 -7.93547e-05)
"L1.5" (-5.69093e-09 -0.000129853)
"L1.6" (-6.06021e-10 -7.93547e-05)
"L2:1" (-0.999933 5.94232e-07)
"L1.L0:1" (-1.00000 2.78932e-17)
"L1.L1:1" (-1.00000 1.67126e-05)
"L1.L2:1" (-1.00000 1.82621e-06)
"L1.L3:1" (-1.83547e-09 -1.67126e-05)
"L1.L4:1" (-1.39465e-11 -1.82621e-06)
"L1.L5:1" (-2.48244e-12 7.53969e-17)
"freq" 1.174897554939529e+02
"1" (-0.0360000 -0.000332194)
"2" (-0.0359976 -0.000326422)
"L1.7" (-1.03548e-09 -0.000332194)
"L1.8" (1.19279e-18 3.83785e-14)
"L1.9" (2.58594e-11 -8.26192e-17)
"L1.3" (-1.03548e-09 -0.000132878)
"L1.4" (-1.51748e-10 -8.12031e-05)
"L1.5" (-5.95914e-09 -0.000132878)
"L1.6" (-6.34582e-10 -8.12031e-05)
"L2:1" (-0.999933 6.08074e-07)
"L1.L0:1" (-1.00000 2.98881e-17)
"L1.L1:1" (-1.00000 1.71019e-05)
"L1.L2:1" (-1.00000 1.86875e-06)
"L1.L3:1" (-1.92197e-09 -1.71019e-05)
"L1.L4:1" (-1.46038e-11 -1.86875e-06)
"L1.L5:1" (-2.59943e-12 8.07892e-17)
"freq" 1.202264434617412e+02
"1" (-0.0360000 -0.000339932)
"2" (-0.0359976 -0.000334026)
"L1.7" (-1.08428e-09 -0.000339932)
"L1.8" (1.30787e-18 4.11233e-14)
"L1.9" (2.70781e-11 -8.85281e-17)
"L1.3" (-1.08428e-09 -0.000135973)
"L1.4" (-1.58900e-10 -8.30946e-05)
"L1.5" (-6.23998e-09 -0.000135973)
"L1.6" (-6.64489e-10 -8.30946e-05)
"L2:1" (-0.999933 6.22238e-07)
"L1.L0:1" (-1.00000 3.20257e-17)
"L1.L1:1" (-1.00000 1.75002e-05)
"L1.L2:1" (-1.00000 1.91227e-06)
"L1.L3:1" (-2.01255e-09 -1.75002e-05)
"L1.L4:1" (-1.52920e-11 -1.91227e-06)
"L1.L5:1" (-2.72194e-12 8.65672e-17)
"freq" 1.230268770812381e+02
"1" (-0.0360000 -0.000347850)
"2" (-0.0359976 -0.000341806)
"L1.7" (-1.13538e-09 -0.000347850)
"L1.8" (1.43405e-18 4.40644e-14)
"L1.9" (2.83543e-11 -9.48596e-17)
"L1.3" (-1.13538e-09 -0.000139140)
"L1.4" (-1.66388e-10 -8.50301e-05)
"L1.5" (-6.53406e-09 -0.000139140)
"L1.6" (-6.95806e-10 -8.50301e-05)
"L2:1" (-0.999933 6.36731e-07)
"L1.L0:1" (-1.00000 3.55520e-17)
"L1.L1:1" (-1.00000 1.79078e-05)
"L1.L2:1" (-1.00000 1.95682e-06)
"L1.L3:1" (-2.10740e-09 -1.79078e-05)
"L1.L4:1" (-1.60127e-11 -1.95682e-06)
"L1.L5:1" (-2.85022e-12 9.27584e-17)
"freq" 1.258925411794167e+02
"1" (-0.0360000 -0.000355953)
"2" (-0.0359976 -0.000349768)
"L1.7" (-1.18889e-09 -0.000355953)
"L1.8" (1.57240e-18 4.72159e-14)
"L1.9" (2.96906e-11 -1.01644e-16)
"L1.3" (-1.18889e-09 -0.000142381)
"L1.4" (-1.74230e-10 -8.70107e-05)
"L1.5" (-6.84201e-09 -0.000142381)
"L1.6" (-7.28598e-10 -8.70107e-05)
"L2:1" (-0.999933 6.51563e-07)
"L1.L0:1" (-1.00000 3.80350e-17)
"L1.L1:1" (-1.00000 1.83250e-05)
"L1.L2:1" (-1.00000 2.00240e-06)
"L1.L3:1" (-2.20672e-09 -1.83250e-05)
"L1.L4:1" (-1.67674e-11 -2.00240e-06)
"L1.L5:1" (-2.98454e-12 9.93924e-17)
"freq" 1.288249551693133e+02
"1" (-0.0360000 -0.000364244)
"2" (-0.0359976 -0.000357915)
"L1.7" (-1.24492e-09 -0.000364244)
"L1.8" (1.72410e-18 5.05927e-14)
"L1.9" (3.10899e-11 -1.08913e-16)
"L1.3" (-1.24492e-09 -0.000145698)
"L1.4" (-1.82441e-10 -8.90374e-05)
"L1.5" (-7.16446e-09 -0.000145698)
"L1.6" (-7.62936e-10 -8.90374e-05)
"L2:1" (-0.999933 6.66740e-07)
"L1.L0:1" (-1.00000 4.06943e-17)
"L1.L1:1" (-1.00000 1.87518e-05)
"L1.L2:1" (-1.00000 2.04904e-06)
"L1.L3:1" (-2.31071e-09 -1.87518e-05)
"L1.L4:1" (-1.75576e-11 -2.04904e-06)
"L1.L5:1" (-3.12520e-12 1.06501e-16)
"freq" 1.318256738556406e+02
"1" (-0.0360000 -0.000372728)
"2" (-0.0359976 -0.000366252)
"L1.7" (-1.30359e-09 -0.000372728)
"L1.8" (1.89044e-18 5.42111e-14)
"L1.9" (3.25551e-11 -1.16703e-16)
"L1.3" (-1.30359e-09 -0.000149091)
"L1.4" (-1.91039e-10 -9.11114e-05)
"L1.5" (-7.50211e-09 -0.000149091)
"L1.6" (-7.98892e-10 -9.11114e-05)
"L2:1" (-0.999933 6.82270e-07)
"L1.L0:1" (-1.00000 4.35423e-17)
"L1.L1:1" (-1.00000 1.91886e-05)
"L1.L2:1" (-1.00000 2.09677e-06)
"L1.L3:1" (-2.41962e-09 -1.91886e-05)
"L1.L4:1" (-1.83851e-11 -2.09677e-06)
"L1.L5:1" (-3.27249e-12 1.14118e-16)
"freq" 1.348962882591653e+02
"1" (-0.0360000 -0.000381410)
"2" (-0.0359976 -0.000374783)
"L1.7" (-1.36503e-09 -0.000381410)
"L1.8" (2.07283e-18 5.80882e-14)
"L1.9" (3.40894e-11 -1.25049e-16)
"L1.3" (-1.36503e-09 -0.000152564)
"L1.4" (-2.00043e-10 -9.32336e-05)
"L1.5" (-7.85567e-09 -0.000152564)
"L1.6" (-8.36542e-10 -9.32336e-05)
"L2:1" (-0.999933 6.98162e-07)
"L1.L0:1" (-1.00000 4.65926e-17)
"L1.L1:1" (-1.00000 1.96356e-05)
"L1.L2:1" (-1.00000 2.14561e-06)
"L1.L3:1" (-2.53365e-09 -1.96356e-05)
"L1.L4:1" (-1.92515e-11 -2.14561e-06)
"L1.L5:1" (-3.42672e-12 1.22279e-16)
"freq" 1.380384264602884e+02
"1" (-0.0360000 -0.000390294)
"2" (-0.0359976 -0.000383513)
"L1.7" (-1.42936e-09 -0.000390294)
"L1.8" (2.27281e-18 6.22426e-14)
"L1.9" (3.56959e-11 -1.33993e-16)
"L1.3" (-1.42936e-09 -0.000156118)
"L1.4" (-2.09470e-10 -9.54053e-05)
"L1.5" (-8.22590e-09 -0.000156118)
"L1.6" (-8.75967e-10 -9.54053e-05)
"L2:1" (-0.999933 7.14424e-07)
"L1.L0:1" (-1.00000 4.98595e-17)
"L1.L1:1" (-1.00000 2.00929e-05)
"L1.L2:1" (-1.00000 2.19559e-06)
"L1.L3:1" (-2.65306e-09 -2.00929e-05)
"L1.L4:1" (-2.01588e-11 -2.19559e-06)
"L1.L5:1" (-3.58821e-12 1.31025e-16)
"freq" 1.412537544622753e+02
"1" (-0.0360000 -0.000399386)
"2" (-0.0359976 -0.000392446)
"L1.7" (-1.49673e-09 -0.000399386)
"L1.8" (2.49209e-18 6.66942e-14)
"L1.9" (3.73782e-11 -1.43576e-16)
"L1.3" (-1.49673e-09 -0.000159754)
"L1.4" (-2.19343e-10 -9.76276e-05)
"L1.5" (-8.61357e-09 -0.000159754)
"L1.6" (-9.17251e-10 -9.76276e-05)
"L2:1" (-0.999933 7.31065e-07)
"L1.L0:1" (-1.00000 5.33585e-17)
"L1.L1:1" (-1.00000 2.05610e-05)
"L1.L2:1" (-1.00000 2.24673e-06)
"L1.L3:1" (-2.77809e-09 -2.05610e-05)
"L1.L4:1" (-2.11089e-11 -2.24673e-06)
"L1.L5:1" (-3.75732e-12 1.40396e-16)
"freq" 1.445439770745926e+02
"1" (-0.0360000 -0.000408688)
"2" (-0.0359976 -0.000401587)
"L1.7" (-1.56726e-09 -0.000408688)
"L1.8" (2.73252e-18 7.14641e-14)
"L1.9" (3.91398e-11 -1.53844e-16)
"L1.3" (-1.56726e-09 -0.000163475)
"L1.4" (-2.29680e-10 -9.99016e-05)
"L1.5" (-9.01952e-09 -0.000163475)
"L1.6" (-9.60479e-10 -9.99016e-05)
"L2:1" (-0.999933 7.48094e-07)
"L1.L0:1" (-1.00000 5.71063e-17)
"L1.L1:1" (-1.00000 2.10399e-05)
"L1.L2:1" (-1.00000 2.29906e-06)
"L1.L3:1" (-2.90902e-09 -2.10399e-05)
"L1.L4:1" (-2.21037e-11 -2.29906e-06)
"L1.L5:1" (-3.93440e-12 1.50437e-16)
"freq" 1.479108388168206e+02
"1" (-0.0360000 -0.000418208)
"2" (-0.0359976 -0.000410941)
"L1.7" (-1.64113e-09 -0.000418208)
"L1.8" (2.99615e-18 7.65752e-14)
"L1.9" (4.09844e-11 -1.64847e-16)
"L1.3" (-1.64113e-09 -0.000167283)
"L1.4" (-2.40504e-10 -0.000102229)
"L1.5" (-9.44460e-09 -0.000167283)
"L1.6" (-1.00575e-09 -0.000102229)
"L2:1" (-0.999933 7.65519e-07)
"L1.L0:1" (-1.00000 6.11204e-17)
"L1.L1:1" (-1.00000 2.15300e-05)
"L1.L2:1" (-1.00000 2.35261e-06)
"L1.L3:1" (-3.04612e-09 -2.15300e-05)
"L1.L4:1" (-2.31455e-11 -2.35261e-06)
"L1.L5:1" (-4.11982e-12 1.61196e-16)
"freq" 1.513561248436207e+02
"1" (-0.0360000 -0.000427949)
"2" (-0.0359976 -0.000420513)
"L1.7" (-1.71847e-09 -0.000427949)
"L1.8" (3.28521e-18 8.20518e-14)
"L1.9" (4.29160e-11 -1.76637e-16)
"L1.3" (-1.71847e-09 -0.000171180)
"L1.4" (-2.51839e-10 -0.000104610)
"L1.5" (-9.88971e-09 -0.000171180)
"L1.6" (-1.05314e-09 -0.000104610)
"L2:1" (-0.999933 7.83351e-07)
"L1.L0:1" (-1.00000 6.54201e-17)
"L1.L1:1" (-1.00000 2.20315e-05)
"L1.L2:1" (-1.00000 2.40741e-06)
"L1.L3:1" (-3.18967e-09 -2.20315e-05)
"L1.L4:1" (-2.42363e-11 -2.40741e-06)
"L1.L5:1" (-4.31398e-12 1.72724e-16)
"freq" 1.548816618912480e+02
"1" (-0.0360000 -0.000437918)
"2" (-0.0359976 -0.000430308)
"L1.7" (-1.79946e-09 -0.000437918)
"L1.8" (3.60216e-18 8.79201e-14)
"L1.9" (4.49385e-11 -1.89270e-16)
"L1.3" (-1.79946e-09 -0.000175167)
"L1.4" (-2.63708e-10 -0.000107047)
"L1.5" (-1.03558e-08 -0.000175167)
"L1.6" (-1.10278e-09 -0.000107047)
"L2:1" (-0.999933 8.01597e-07)
"L1.L0:1" (-1.00000 7.00256e-17)
"L1.L1:1" (-1.00000 2.25446e-05)
"L1.L2:1" (-1.00000 2.46349e-06)
"L1.L3:1" (-3.34000e-09 -2.25446e-05)
"L1.L4:1" (-2.53785e-11 -2.46349e-06)
"L1.L5:1" (-4.51729e-12 1.85077e-16)
"freq" 1.584893192461112e+02
"1" (-0.0360000 -0.000448118)
"2" (-0.0359976 -0.000440331)
"L1.7" (-1.88427e-09 -0.000448118)
"L1.8" (3.94969e-18 9.42080e-14)
"L1.9" (4.70564e-11 -2.02806e-16)
"L1.3" (-1.88427e-09 -0.000179247)
"L1.4" (-2.76136e-10 -0.000109540)
"L1.5" (-1.08438e-08 -0.000179247)
"L1.6" (-1.15475e-09 -0.000109540)
"L2:1" (-0.999933 8.20269e-07)
"L1.L0:1" (-1.00000 7.49587e-17)
"L1.L1:1" (-1.00000 2.30698e-05)
"L1.L2:1" (-1.00000 2.52087e-06)
"L1.L3:1" (-3.49741e-09 -2.30698e-05)
"L1.L4:1" (-2.65745e-11 -2.52087e-06)
"L1.L5:1" (-4.73018e-12 1.98314e-16)
"freq" 1.621810097358928e+02
"1" (-0.0360000 -0.000458556)
"2" (-0.0359976 -0.000450588)
"L1.7" (-1.97307e-09 -0.000458556)
"L1.8" (4.33075e-18 1.00946e-13)
"L1.9" (4.92741e-11 -2.17311e-16)
"L1.3" (-1.97307e-09 -0.000183422)
"L1.4" (-2.89150e-10 -0.000112091)
"L1.5" (-1.13549e-08 -0.000183422)
"L1.6" (-1.20917e-09 -0.000112091)
"L2:1" (-0.999933 8.39375e-07)
"L1.L0:1" (-1.00000 8.02429e-17)
"L1.L1:1" (-1.00000 2.36071e-05)
"L1.L2:1" (-1.00000 2.57959e-06)
"L1.L3:1" (-3.66224e-09 -2.36071e-05)
"L1.L4:1" (-2.78270e-11 -2.57959e-06)
"L1.L5:1" (-4.95311e-12 2.12497e-16)
"freq" 1.659586907437559e+02
"1" (-0.0360000 -0.000469237)
"2" (-0.0359976 -0.000461084)
"L1.7" (-2.06606e-09 -0.000469237)
"L1.8" (4.74857e-18 1.08165e-13)
"L1.9" (5.15963e-11 -2.32853e-16)
"L1.3" (-2.06606e-09 -0.000187695)
"L1.4" (-3.02777e-10 -0.000114702)
"L1.5" (-1.18900e-08 -0.000187695)
"L1.6" (-1.26616e-09 -0.000114702)
"L2:1" (-0.999933 8.58927e-07)
"L1.L0:1" (-1.00000 8.59033e-17)
"L1.L1:1" (-1.00000 2.41570e-05)
"L1.L2:1" (-1.00000 2.63967e-06)
"L1.L3:1" (-3.83483e-09 -2.41570e-05)
"L1.L4:1" (-2.91384e-11 -2.63967e-06)
"L1.L5:1" (-5.18654e-12 2.27695e-16)
"freq" 1.698243652461743e+02
"1" (-0.0360000 -0.000480167)
"2" (-0.0359976 -0.000471824)
"L1.7" (-2.16343e-09 -0.000480167)
"L1.8" (5.20671e-18 1.15901e-13)
"L1.9" (5.40280e-11 -2.49506e-16)
"L1.3" (-2.16343e-09 -0.000192067)
"L1.4" (-3.17046e-10 -0.000117374)
"L1.5" (-1.24504e-08 -0.000192067)
"L1.6" (-1.32583e-09 -0.000117374)
"L2:1" (-0.999933 8.78934e-07)
"L1.L0:1" (-1.00000 9.19666e-17)
"L1.L1:1" (-1.00000 2.47197e-05)
"L1.L2:1" (-1.00000 2.70116e-06)
"L1.L3:1" (-4.01556e-09 -2.47197e-05)
"L1.L4:1" (-3.05116e-11 -2.70116e-06)
"L1.L5:1" (-5.43098e-12 2.43980e-16)
"freq" 1.737800828749374e+02
"1" (-0.0360000 -0.000491352)
"2" (-0.0359976 -0.000482814)
"L1.7" (-2.26539e-09 -0.000491352)
"L1.8" (5.70904e-18 1.24190e-13)
"L1.9" (5.65743e-11 -2.67351e-16)
"L1.3" (-2.26539e-09 -0.000196541)
"L1.4" (-3.31988e-10 -0.000120108)
"L1.5" (-1.30372e-08 -0.000196541)
"L1.6" (-1.38831e-09 -0.000120108)
"L2:1" (-0.999933 8.99407e-07)
"L1.L0:1" (-1.00000 9.84617e-17)
"L1.L1:1" (-1.00000 2.52955e-05)
"L1.L2:1" (-1.00000 2.76408e-06)
"L1.L3:1" (-4.20481e-09 -2.52955e-05)
"L1.L4:1" (-3.19496e-11 -2.76408e-06)
"L1.L5:1" (-5.68693e-12 2.61429e-16)
"freq" 1.778279410038921e+02
"1" (-0.0360000 -0.000502797)
"2" (-0.0359976 -0.000494060)
"L1.7" (-2.37215e-09 -0.000502797)
"L1.8" (6.25984e-18 1.33072e-13)
"L1.9" (5.92405e-11 -2.86471e-16)
"L1.3" (-2.37215e-09 -0.000201119)
"L1.4" (-3.47634e-10 -0.000122906)
"L1.5" (-1.36516e-08 -0.000201119)
"L1.6" (-1.45374e-09 -0.000122906)
"L2:1" (-0.999933 9.20357e-07)
"L1.L0:1" (-1.00000 1.05419e-16)
"L1.L1:1" (-1.00000 2.58847e-05)
"L1.L2:1" (-1.00000 2.82846e-06)
"L1.L3:1" (-4.40298e-09 -2.58847e-05)
"L1.L4:1" (-3.34554e-11 -2.82846e-06)
"L1.L5:1" (-5.95495e-12 2.80126e-16)
"freq" 1.819700858609981e+02
"1" (-0.0360000 -0.000514508)
"2" (-0.0359976 -0.000505568)
"L1.7" (-2.48395e-09 -0.000514508)
"L1.8" (6.86378e-18 1.42590e-13)
"L1.9" (6.20324e-11 -3.06960e-16)
"L1.3" (-2.48395e-09 -0.000205803)
"L1.4" (-3.64018e-10 -0.000125769)
"L1.5" (-1.42950e-08 -0.000205803)
"L1.6" (-1.52226e-09 -0.000125769)
"L2:1" (-0.999933 9.41795e-07)
"L1.L0:1" (-1.00000 1.12873e-16)
"L1.L1:1" (-1.00000 2.64876e-05)
"L1.L2:1" (-1.00000 2.89434e-06)
"L1.L3:1" (-4.61048e-09 -2.64876e-05)
"L1.L4:1" (-3.50321e-11 -2.89434e-06)
"L1.L5:1" (-6.23560e-12 3.00160e-16)
"freq" 1.862087136662865e+02
"1" (-0.0360000 -0.000526493)
"2" (-0.0359976 -0.000517344)
"L1.7" (-2.60101e-09 -0.000526493)
"L1.8" (7.52598e-18 1.52788e-13)
"L1.9" (6.49559e-11 -3.28913e-16)
"L1.3" (-2.60101e-09 -0.000210597)
"L1.4" (-3.81174e-10 -0.000128698)
"L1.5" (-1.49687e-08 -0.000210597)
"L1.6" (-1.59400e-09 -0.000128698)
"L2:1" (-0.999933 9.63732e-07)
"L1.L0:1" (-1.00000 1.20857e-16)
"L1.L1:1" (-1.00000 2.71046e-05)
"L1.L2:1" (-1.00000 2.96176e-06)
"L1.L3:1" (-4.82777e-09 -2.71046e-05)
"L1.L4:1" (-3.66831e-11 -2.96176e-06)
"L1.L5:1" (-6.52947e-12 3.21628e-16)
"freq" 1.905460717963245e+02
"1" (-0.0360000 -0.000538756)
"2" (-0.0359976 -0.000529395)
"L1.7" (-2.72359e-09 -0.000538756)
"L1.8" (8.25208e-18 1.63715e-13)
"L1.9" (6.80172e-11 -3.52437e-16)
"L1.3" (-2.72359e-09 -0.000215503)
"L1.4" (-3.99138e-10 -0.000131696)
"L1.5" (-1.56741e-08 -0.000215503)
"L1.6" (-1.66912e-09 -0.000131696)
"L2:1" (-0.999933 9.86180e-07)
"L1.L0:1" (-1.00000 1.29411e-16)
"L1.L1:1" (-1.00000 2.77360e-05)
"L1.L2:1" (-1.00000 3.03075e-06)
"L1.L3:1" (-5.05529e-09 -2.77360e-05)
"L1.L4:1" (-3.84119e-11 -3.03075e-06)
"L1.L5:1" (-6.83720e-12 3.44630e-16)
"freq" 1.949844599758043e+02
"1" (-0.0360000 -0.000551306)
"2" (-0.0359976 -0.000541726)
"L1.7" (-2.85195e-09 -0.000551306)
"L1.8" (9.04822e-18 1.75424e-13)
"L1.9" (7.12228e-11 -3.77643e-16)
"L1.3" (-2.85195e-09 -0.000220522)
"L1.4" (-4.17949e-10 -0.000134764)
"L1.5" (-1.64128e-08 -0.000220522)
"L1.6" (-1.74778e-09 -0.000134764)
"L2:1" (-0.999933 1.00915e-06)
"L1.L0:1" (-1.00000 1.38574e-16)
"L1.L1:1" (-1.00000 2.83820e-05)
"L1.L2:1" (-1.00000 3.10135e-06)
"L1.L3:1" (-5.29354e-09 -2.83820e-05)
"L1.L4:1" (-4.02222e-11 -3.10135e-06)
"L1.L5:1" (-7.15942e-12 3.69278e-16)
"freq" 1.995262314968877e+02
"1" (-0.0360000 -0.000564147)
"2" (-0.0359976 -0.000554344)
"L1.7" (-2.98636e-09 -0.000564147)
"L1.8" (9.92118e-18 1.87970e-13)
"L1.9" (7.45794e-11 -4.04652e-16)
"L1.3" (-2.98636e-09 -0.000225659)
"L1.4" (-4.37646e-10 -0.000137903)
"L1.5" (-1.71863e-08 -0.000225659)
"L1.6" (-1.83016e-09 -0.000137903)
"L2:1" (-0.999933 1.03266e-06)
"L1.L0:1" (-1.00000 1.48390e-16)
"L1.L1:1" (-1.00000 2.90431e-05)
"L1.L2:1" (-1.00000 3.17359e-06)
"L1.L3:1" (-5.54302e-09 -2.90431e-05)
"L1.L4:1" (-4.21178e-11 -3.17359e-06)
"L1.L5:1" (-7.49684e-12 3.95688e-16)
"freq" 2.041737944669526e+02
"1" (-0.0360000 -0.000577288)
"2" (-0.0359976 -0.000567257)
"L1.7" (-3.12710e-09 -0.000577288)
"L1.8" (1.08784e-17 2.01413e-13)
"L1.9" (7.80942e-11 -4.33592e-16)
"L1.3" (-3.12710e-09 -0.000230915)
"L1.4" (-4.58271e-10 -0.000141115)
"L1.5" (-1.79963e-08 -0.000230915)
"L1.6" (-1.91641e-09 -0.000141115)
"L2:1" (-0.999933 1.05671e-06)
"L1.L0:1" (-1.00000 1.58906e-16)
"L1.L1:1" (-1.00000 2.97196e-05)
"L1.L2:1" (-1.00000 3.24751e-06)
"L1.L3:1" (-5.80425e-09 -2.97196e-05)
"L1.L4:1" (-4.41027e-11 -3.24751e-06)
"L1.L5:1" (-7.85015e-12 4.23988e-16)
"freq" 2.089296130854036e+02
"1" (-0.0360000 -0.000590735)
"2" (-0.0359976 -0.000580470)
"L1.7" (-3.27448e-09 -0.000590735)
"L1.8" (1.19279e-17 2.15818e-13)
"L1.9" (8.17747e-11 -4.64602e-16)
"L1.3" (-3.27448e-09 -0.000236294)
"L1.4" (-4.79869e-10 -0.000144402)
"L1.5" (-1.88444e-08 -0.000236294)
"L1.6" (-2.00673e-09 -0.000144402)
"L2:1" (-0.999933 1.08132e-06)
"L1.L0:1" (-1.00000 1.70172e-16)
"L1.L1:1" (-1.00000 3.04119e-05)
"L1.L2:1" (-1.00000 3.32315e-06)
"L1.L3:1" (-6.07780e-09 -3.04119e-05)
"L1.L4:1" (-4.61812e-11 -3.32315e-06)
"L1.L5:1" (-8.22012e-12 4.54311e-16)
"freq" 2.137962089502229e+02
"1" (-0.0360000 -0.000604495)
"2" (-0.0359976 -0.000593991)
"L1.7" (-3.42880e-09 -0.000604495)
"L1.8" (1.30787e-17 2.31253e-13)
"L1.9" (8.56286e-11 -4.97830e-16)
"L1.3" (-3.42880e-09 -0.000241798)
"L1.4" (-5.02485e-10 -0.000147765)
"L1.5" (-1.97326e-08 -0.000241798)
"L1.6" (-2.10130e-09 -0.000147765)
"L2:1" (-0.999933 1.10651e-06)
"L1.L0:1" (-1.00000 1.84389e-16)
"L1.L1:1" (-1.00000 3.11203e-05)
"L1.L2:1" (-1.00000 3.40056e-06)
"L1.L3:1" (-6.36424e-09 -3.11203e-05)
"L1.L4:1" (-4.83577e-11 -3.40056e-06)
"L1.L5:1" (-8.60752e-12 4.86803e-16)
"freq" 2.187761623949549e+02
"1" (-0.0360000 -0.000618575)
"2" (-0.0359976 -0.000607827)
"L1.7" (-3.59039e-09 -0.000618575)
"L1.8" (1.43405e-17 2.47792e-13)
"L1.9" (8.96641e-11 -5.33435e-16)
"L1.3" (-3.59039e-09 -0.000247430)
"L1.4" (-5.26166e-10 -0.000151207)
"L1.5" (-2.06625e-08 -0.000247430)
"L1.6" (-2.20033e-09 -0.000151207)
"L2:1" (-0.999933 1.13229e-06)
"L1.L0:1" (-1.00000 1.97369e-16)
"L1.L1:1" (-1.00000 3.18451e-05)
"L1.L2:1" (-1.00000 3.47977e-06)
"L1.L3:1" (-6.66417e-09 -3.18451e-05)
"L1.L4:1" (-5.06367e-11 -3.47977e-06)
"L1.L5:1" (-9.01318e-12 5.21619e-16)
"freq" 2.238721138568336e+02
"1" (-0.0360000 -0.000632983)
"2" (-0.0359976 -0.000621985)
"L1.7" (-3.75960e-09 -0.000632983)
"L1.8" (1.57240e-17 2.65514e-13)
"L1.9" (9.38899e-11 -5.71585e-16)
"L1.3" (-3.75960e-09 -0.000253193)
"L1.4" (-5.50963e-10 -0.000154729)
"L1.5" (-2.16363e-08 -0.000253193)
"L1.6" (-2.30403e-09 -0.000154729)
"L2:1" (-0.999933 1.15866e-06)
"L1.L0:1" (-1.00000 2.11273e-16)
"L1.L1:1" (-1.00000 3.25869e-05)
"L1.L2:1" (-1.00000 3.56082e-06)
"L1.L3:1" (-6.97825e-09 -3.25869e-05)
"L1.L4:1" (-5.30232e-11 -3.56082e-06)
"L1.L5:1" (-9.43796e-12 5.58925e-16)
"freq" 2.290867652767769e+02
"1" (-0.0360000 -0.000647728)
"2" (-0.0359976 -0.000636473)
"L1.7" (-3.93679e-09 -0.000647728)
"L1.8" (1.72410e-17 2.84504e-13)
"L1.9" (9.83148e-11 -6.12465e-16)
"L1.3" (-3.93679e-09 -0.000259091)
"L1.4" (-5.76930e-10 -0.000158333)
"L1.5" (-2.26560e-08 -0.000259091)
"L1.6" (-2.41261e-09 -0.000158333)
"L2:1" (-0.999933 1.18565e-06)
"L1.L0:1" (-1.00000 2.26166e-16)
"L1.L1:1" (-1.00000 3.33460e-05)
"L1.L2:1" (-1.00000 3.64376e-06)
"L1.L3:1" (-7.30712e-09 -3.33460e-05)
"L1.L4:1" (-5.55221e-11 -3.64376e-06)
"L1.L5:1" (-9.88276e-12 5.98899e-16)
"freq" 2.344228815319918e+02
"1" (-0.0360000 -0.000662815)
"2" (-0.0359976 -0.000651298)
"L1.7" (-4.12232e-09 -0.000662815)
"L1.8" (1.89044e-17 3.04851e-13)
"L1.9" (1.02948e-10 -6.56268e-16)
"L1.3" (-4.12232e-09 -0.000265126)
"L1.4" (-6.04119e-10 -0.000162021)
"L1.5" (-2.37238e-08 -0.000265126)
"L1.6" (-2.52632e-09 -0.000162021)
"L2:1" (-0.999933 1.21327e-06)
"L1.L0:1" (-1.00000 2.42119e-16)
"L1.L1:1" (-1.00000 3.41227e-05)
"L1.L2:1" (-1.00000 3.72864e-06)
"L1.L3:1" (-7.65149e-09 -3.41227e-05)
"L1.L4:1" (-5.81387e-11 -3.72864e-06)
"L1.L5:1" (-1.03485e-11 6.41732e-16)
"freq" 2.398832919019486e+02
"1" (-0.0360000 -0.000678254)
"2" (-0.0359976 -0.000666469)
"L1.7" (-4.31660e-09 -0.000678254)
"L1.8" (2.07283e-17 3.26654e-13)
"L1.9" (1.07800e-10 -7.03204e-16)
"L1.3" (-4.31660e-09 -0.000271302)
"L1.4" (-6.32591e-10 -0.000165795)
"L1.5" (-2.48418e-08 -0.000271302)
"L1.6" (-2.64538e-09 -0.000165795)
"L2:1" (-0.999933 1.24153e-06)
"L1.L0:1" (-1.00000 2.59209e-16)
"L1.L1:1" (-1.00000 3.49175e-05)
"L1.L2:1" (-1.00000 3.81549e-06)
"L1.L3:1" (-8.01210e-09 -3.49175e-05)
"L1.L4:1" (-6.08787e-11 -3.81549e-06)
"L1.L5:1" (-1.08362e-11 6.87628e-16)
"freq" 2.454708915685026e+02
"1" (-0.0360000 -0.000694053)
"2" (-0.0359976 -0.000681993)
"L1.7" (-4.52004e-09 -0.000694053)
"L1.8" (2.27281e-17 3.50016e-13)
"L1.9" (1.12880e-10 -7.53496e-16)
"L1.3" (-4.52004e-09 -0.000277621)
"L1.4" (-6.62404e-10 -0.000169657)
"L1.5" (-2.60126e-08 -0.000277621)
"L1.6" (-2.77005e-09 -0.000169657)
"L2:1" (-0.999933 1.27045e-06)
"L1.L0:1" (-1.00000 2.77515e-16)
"L1.L1:1" (-1.00000 3.57308e-05)
"L1.L2:1" (-1.00000 3.90436e-06)
"L1.L3:1" (-8.38970e-09 -3.57308e-05)
"L1.L4:1" (-6.37479e-11 -3.90436e-06)
"L1.L5:1" (-1.13469e-11 7.36806e-16)
"freq" 2.511886431509576e+02
"1" (-0.0360000 -0.000710219)
"2" (-0.0359976 -0.000697878)
"L1.7" (-4.73306e-09 -0.000710219)
"L1.8" (2.49209e-17 3.75049e-13)
"L1.9" (1.18200e-10 -8.07386e-16)
"L1.3" (-4.73306e-09 -0.000284088)
"L1.4" (-6.93622e-10 -0.000173609)
"L1.5" (-2.72385e-08 -0.000284088)
"L1.6" (-2.90060e-09 -0.000173609)
"L2:1" (-0.999933 1.30004e-06)
"L1.L0:1" (-1.00000 2.97124e-16)
"L1.L1:1" (-1.00000 3.65631e-05)
"L1.L2:1" (-1.00000 3.99531e-06)
"L1.L3:1" (-8.78509e-09 -3.65631e-05)
"L1.L4:1" (-6.67522e-11 -3.99531e-06)
"L1.L5:1" (-1.18817e-11 7.89502e-16)
"freq" 2.570395782768859e+02
"1" (-0.0360000 -0.000726762)
"2" (-0.0359976 -0.000714134)
"L1.7" (-4.95612e-09 -0.000726762)
"L1.8" (2.73252e-17 4.01872e-13)
"L1.9" (1.23771e-10 -8.65130e-16)
"L1.3" (-4.95612e-09 -0.000290705)
"L1.4" (-7.26311e-10 -0.000177653)
"L1.5" (-2.85222e-08 -0.000290705)
"L1.6" (-3.03730e-09 -0.000177653)
"L2:1" (-0.999933 1.33032e-06)
"L1.L0:1" (-1.00000 3.18131e-16)
"L1.L1:1" (-1.00000 3.74148e-05)
"L1.L2:1" (-1.00000 4.08837e-06)
"L1.L3:1" (-9.19912e-09 -3.74148e-05)
"L1.L4:1" (-6.98981e-11 -4.08837e-06)
"L1.L5:1" (-1.24417e-11 8.45967e-16)
"freq" 2.630267991895378e+02
"1" (-0.0360000 -0.000743691)
"2" (-0.0359976 -0.000730768)
"L1.7" (-5.18970e-09 -0.000743691)
"L1.8" (2.99615e-17 4.30614e-13)
"L1.9" (1.29604e-10 -9.27003e-16)
"L1.3" (-5.18970e-09 -0.000297476)
"L1.4" (-7.60541e-10 -0.000181791)
"L1.5" (-2.98664e-08 -0.000297476)
"L1.6" (-3.18045e-09 -0.000181791)
"L2:1" (-0.999933 1.36131e-06)
"L1.L0:1" (-1.00000 3.40635e-16)
"L1.L1:1" (-1.00000 3.82863e-05)
"L1.L2:1" (-1.00000 4.18360e-06)
"L1.L3:1" (-9.63266e-09 -3.82863e-05)
"L1.L4:1" (-7.31923e-11 -4.18360e-06)
"L1.L5:1" (-1.30280e-11 9.06470e-16)
"freq" 2.691534803926911e+02
"1" (-0.0360000 -0.000761014)
"2" (-0.0359976 -0.000747790)
"L1.7" (-5.43428e-09 -0.000761014)
"L1.8" (3.28521e-17 4.61411e-13)
"L1.9" (1.35712e-10 -9.93302e-16)
"L1.3" (-5.43428e-09 -0.000304405)
"L1.4" (-7.96385e-10 -0.000186026)
"L1.5" (-3.12740e-08 -0.000304405)
"L1.6" (-3.33034e-09 -0.000186026)
"L2:1" (-0.999933 1.39302e-06)
"L1.L0:1" (-1.00000 3.64742e-16)
"L1.L1:1" (-1.00000 3.91781e-05)
"L1.L2:1" (-1.00000 4.28105e-06)
"L1.L3:1" (-1.00866e-08 -3.91781e-05)
"L1.L4:1" (-7.66418e-11 -4.28105e-06)
"L1.L5:1" (-1.36420e-11 9.71300e-16)
"freq" 2.754228703338161e+02
"1" (-0.0360000 -0.000778740)
"2" (-0.0359976 -0.000765208)
"L1.7" (-5.69039e-09 -0.000778740)
"L1.8" (3.60216e-17 4.94411e-13)
"L1.9" (1.42108e-10 -1.06434e-15)
"L1.3" (-5.69039e-09 -0.000311496)
"L1.4" (-8.33917e-10 -0.000190359)
"L1.5" (-3.27479e-08 -0.000311496)
"L1.6" (-3.48729e-09 -0.000190359)
"L2:1" (-0.999933 1.42546e-06)
"L1.L0:1" (-1.00000 3.93334e-16)
"L1.L1:1" (-1.00000 4.00907e-05)
"L1.L2:1" (-1.00000 4.38077e-06)
"L1.L3:1" (-1.05620e-08 -4.00907e-05)
"L1.L4:1" (-8.02538e-11 -4.38077e-06)
"L1.L5:1" (-1.42849e-11 1.04077e-15)
"freq" 2.818382931264449e+02
"1" (-0.0360000 -0.000796879)
"2" (-0.0359976 -0.000783032)
"L1.7" (-5.95857e-09 -0.000796879)
"L1.8" (3.94969e-17 5.29771e-13)
"L1.9" (1.48805e-10 -1.14046e-15)
"L1.3" (-5.95857e-09 -0.000318752)
"L1.4" (-8.73218e-10 -0.000194793)
"L1.5" (-3.42913e-08 -0.000318752)
"L1.6" (-3.65164e-09 -0.000194793)
"L2:1" (-0.999933 1.45867e-06)
"L1.L0:1" (-1.00000 4.21064e-16)
"L1.L1:1" (-1.00000 4.10245e-05)
"L1.L2:1" (-1.00000 4.48281e-06)
"L1.L3:1" (-1.10598e-08 -4.10245e-05)
"L1.L4:1" (-8.40361e-11 -4.48281e-06)
"L1.L5:1" (-1.49582e-11 1.11520e-15)
"freq" 2.884031503126600e+02
"1" (-0.0360000 -0.000815441)
"2" (-0.0359976 -0.000801271)
"L1.7" (-6.23939e-09 -0.000815441)
"L1.8" (4.33075e-17 5.67660e-13)
"L1.9" (1.55818e-10 -1.22203e-15)
"L1.3" (-6.23939e-09 -0.000326176)
"L1.4" (-9.14372e-10 -0.000199330)
"L1.5" (-3.59074e-08 -0.000326176)
"L1.6" (-3.82374e-09 -0.000199330)
"L2:1" (-0.999933 1.49264e-06)
"L1.L0:1" (-1.00000 4.50769e-16)
"L1.L1:1" (-1.00000 4.19801e-05)
"L1.L2:1" (-1.00000 4.58723e-06)
"L1.L3:1" (-1.15810e-08 -4.19801e-05)
"L1.L4:1" (-8.79966e-11 -4.58723e-06)
"L1.L5:1" (-1.56631e-11 1.19496e-15)
"freq" 2.951209226666380e+02
"1" (-0.0360000 -0.000834435)
"2" (-0.0359976 -0.000819935)
"L1.7" (-6.53344e-09 -0.000834435)
"L1.8" (4.74857e-17 6.08258e-13)
"L1.9" (1.63162e-10 -1.30943e-15)
"L1.3" (-6.53344e-09 -0.000333774)
"L1.4" (-9.57465e-10 -0.000203973)
"L1.5" (-3.75996e-08 -0.000333774)
"L1.6" (-4.00394e-09 -0.000203973)
"L2:1" (-0.999933 1.52741e-06)
"L1.L0:1" (-1.00000 4.82589e-16)
"L1.L1:1" (-1.00000 4.29579e-05)
"L1.L2:1" (-1.00000 4.69408e-06)
"L1.L3:1" (-1.21268e-08 -4.29579e-05)
"L1.L4:1" (-9.21437e-11 -4.69408e-06)
"L1.L5:1" (-1.64013e-11 1.28042e-15)
"freq" 3.019951720402011e+02
"1" (-0.0360000 -0.000853871)
"2" (-0.0359976 -0.000839034)
"L1.7" (-6.84136e-09 -0.000853871)
"L1.8" (5.20671e-17 6.51760e-13)
"L1.9" (1.70852e-10 -1.40308e-15)
"L1.3" (-6.84136e-09 -0.000341548)
"L1.4" (-1.00259e-09 -0.000208724)
"L1.5" (-3.93716e-08 -0.000341548)
"L1.6" (-4.19264e-09 -0.000208724)
"L2:1" (-0.999933 1.56299e-06)
"L1.L0:1" (-1.00000 5.16674e-16)
"L1.L1:1" (-1.00000 4.39585e-05)
"L1.L2:1" (-1.00000 4.80342e-06)
"L1.L3:1" (-1.26983e-08 -4.39585e-05)
"L1.L4:1" (-9.64863e-11 -4.80342e-06)
"L1.L5:1" (-1.71743e-11 1.37200e-15)
"freq" 3.090295432513585e+02
"1" (-0.0360000 -0.000873760)
"2" (-0.0359976 -0.000858578)
"L1.7" (-7.16378e-09 -0.000873760)
"L1.8" (5.70904e-17 6.98374e-13)
"L1.9" (1.78903e-10 -1.50342e-15)