!--------------------------------------------------
! S-Parameter Data Generated by TDK Corporation
! Copyright(C) 2019 TDK Corporation.
! All Rights Reserved.
!--------------------------------------------------
! TDK P/N: TFM201610ALM-R47MTAA (Inductor)
! Property: L=470nH at 1MHz
! Size(LxWxT): 2x1.6x1mm
! Model Type: s2p (Touchstone File Format Version 1.0)
! Frequency: DC=Yes Start=0.3MHz Stop=10000MHz 802points Log-sweep
! Model Generated on May 10, 2019
!--------------------------------------------------
! Port Assignments:
!
!  1 ---@@@--- 2
!
!--------------------------------------------------
! Applicable Conditions:
!   Temperature = 25 degC
!   DC Bias Current = 0 A
!   Small Signal Operation
!--------------------------------------------------
! Terms and conditions regarding TDK Simulation Models
! (1)This simulation model is being provided solely for informational purposes. Please refer to the specifications of the products in terms of detailed characteristics of such products.
! (2)In no event shall TDK Corporation of any of its subsidiaries be liable for any loss or damage arising, directly or indirectly, 
!    From any information contained in this simulation model, including, but not limited to loss or damages arising from any inaccuracies, omissions or errors in connection with such information.
! (3)Any and all copyrights on this simulation model are owned by TDK Corporation.
!    Duplication or redistribution of this simulation model without prior written permission from TDK Corporation is prohibited.
! (4)This simulation model is subject to any modification or change without any prior notice.
! (5)Neither TDK Corporation nor any of its subsidiaries shall make any warranty, express or implied, 
!    Including but not limited to the correctness, implied warranties of merchantability and fitness for a particular purpose with respect to this simulation models.
! (6)The use of this simulation model shall be deemed to have consented to the terms and conditions hereof.
!--------------------------------------------------
# Hz S MA R 50
0.00000000000E+00	 2.79921621946E-04	 0.00000000000E+00	 9.99720078378E-01	 0.00000000000E+00	 9.99720078378E-01	 0.00000000000E+00	 2.79921621946E-04	 0.00000000000E+00
3.00000000000E+05	 7.76493401928E-03	 8.66531180434E+01	 9.99613793649E-01	-4.56975427005E-01	 9.99323593444E-01	-4.46128511095E-01	 7.92605630792E-03	 8.64610679487E+01
3.04584000000E+05	 7.75121082604E-03	 8.57417859551E+01	 9.99380003678E-01	-4.64231664429E-01	 9.99219349703E-01	-4.59617817826E-01	 7.84223267227E-03	 8.60335105131E+01
3.09169000000E+05	 8.10220198554E-03	 8.59053749915E+01	 9.99430460097E-01	-4.68841607106E-01	 9.99355560387E-01	-4.58947654163E-01	 8.03114537017E-03	 8.62739572255E+01
3.13753000000E+05	 8.09363891136E-03	 8.60492870187E+01	 9.99598271840E-01	-4.87986482747E-01	 9.99213172473E-01	-4.71730426229E-01	 8.32061447455E-03	 8.58205718297E+01
3.18337000000E+05	 8.24048541418E-03	 8.56718504748E+01	 9.99315980584E-01	-4.84854264550E-01	 9.99287445173E-01	-4.70868310500E-01	 8.34780103044E-03	 8.59887785286E+01
3.22921000000E+05	 8.40622301151E-03	 8.55800177192E+01	 9.99571981644E-01	-4.99269588342E-01	 9.99099659625E-01	-4.88580548717E-01	 8.39529120103E-03	 8.54877265099E+01
3.27506000000E+05	 8.39339421714E-03	 8.61310904293E+01	 9.99383826853E-01	-4.93209251494E-01	 9.99034620859E-01	-4.82478748410E-01	 8.37249598303E-03	 8.66972847435E+01
3.32090000000E+05	 8.61313801620E-03	 8.63406363869E+01	 9.99406467850E-01	-5.07262590065E-01	 9.99274276824E-01	-5.01492695533E-01	 8.72585254264E-03	 8.62088798045E+01
3.36674000000E+05	 8.75382099842E-03	 8.59410275465E+01	 9.99483940786E-01	-5.08361509405E-01	 9.99200633185E-01	-5.07090289722E-01	 8.87123583083E-03	 8.59581882657E+01
3.41258000000E+05	 8.80094892693E-03	 8.57920801616E+01	 9.99478258020E-01	-5.16533793862E-01	 9.99248062424E-01	-5.13492561996E-01	 8.94625219807E-03	 8.56706241831E+01
3.45843000000E+05	 8.82479956959E-03	 8.53747447082E+01	 9.99381129798E-01	-5.17919368499E-01	 9.99287856527E-01	-5.16843352818E-01	 8.92662832178E-03	 8.65878009313E+01
3.50427000000E+05	 8.97714148856E-03	 8.54633833183E+01	 9.99152384297E-01	-5.36392307749E-01	 9.99263913743E-01	-5.17847896543E-01	 9.14552817434E-03	 8.59973848978E+01
3.55011000000E+05	 9.26848071086E-03	 8.66200467199E+01	 9.99581017456E-01	-5.27987869050E-01	 9.99391914140E-01	-5.31369884792E-01	 9.21157336849E-03	 8.66201726407E+01
3.59595000000E+05	 9.36580141641E-03	 8.60010566379E+01	 9.99474962104E-01	-5.46273870744E-01	 9.99351825850E-01	-5.37878858482E-01	 9.32765766892E-03	 8.63124697157E+01
3.64180000000E+05	 9.40426690575E-03	 8.62794919079E+01	 9.99535536465E-01	-5.46314115346E-01	 9.99179217314E-01	-5.40856461920E-01	 9.48116025791E-03	 8.62078840521E+01
3.68764000000E+05	 9.51936032171E-03	 8.65525693550E+01	 9.99287244149E-01	-5.51812575313E-01	 9.99170291431E-01	-5.49142852027E-01	 9.58440772566E-03	 8.67392790025E+01
3.73348000000E+05	 9.69796552252E-03	 8.64182241734E+01	 9.99338828989E-01	-5.62323666900E-01	 9.99318737863E-01	-5.50574411744E-01	 9.72130514533E-03	 8.65345443991E+01
3.77933000000E+05	 9.78290454240E-03	 8.57018772508E+01	 9.99302785460E-01	-5.74222037054E-01	 9.99435428161E-01	-5.61707184963E-01	 9.88099073920E-03	 8.64572617379E+01
3.82517000000E+05	 1.00340509269E-02	 8.60831392198E+01	 9.99348856465E-01	-5.90730046195E-01	 9.99405396745E-01	-5.64148748709E-01	 9.98559339850E-03	 8.62248265684E+01
3.87101000000E+05	 1.00031591337E-02	 8.59747123882E+01	 9.99376815559E-01	-5.93499500654E-01	 9.99278011624E-01	-5.78936439826E-01	 1.00327931610E-02	 8.65900271216E+01
3.91685000000E+05	 1.01592308557E-02	 8.58716080710E+01	 9.99311802889E-01	-6.01148633271E-01	 9.99307086624E-01	-5.84996325605E-01	 1.01885871969E-02	 8.63792506558E+01
3.96270000000E+05	 1.02145313366E-02	 8.61608982446E+01	 9.99433906505E-01	-6.03313404403E-01	 9.99227180268E-01	-5.95559266108E-01	 1.03718569995E-02	 8.64899345072E+01
4.00854000000E+05	 1.04625421697E-02	 8.62463844672E+01	 9.99418916069E-01	-5.98380032816E-01	 9.99327790623E-01	-6.02467799559E-01	 1.05145573571E-02	 8.63398690693E+01
4.05438000000E+05	 1.05336791106E-02	 8.64596153767E+01	 9.99394271745E-01	-6.11182862965E-01	 9.99439395339E-01	-6.00144996531E-01	 1.06948839219E-02	 8.67206846315E+01
4.10022000000E+05	 1.05465213640E-02	 8.64937784325E+01	 9.99320994596E-01	-6.14076821581E-01	 9.99084195203E-01	-6.04445655991E-01	 1.06560888941E-02	 8.63819311894E+01
4.15395000000E+05	 1.08279403588E-02	 8.62697193163E+01	 9.99315901628E-01	-6.36702824252E-01	 9.99278487546E-01	-6.20439066690E-01	 1.09072438030E-02	 8.65424547509E+01
4.21743000000E+05	 1.09850572815E-02	 8.66117487491E+01	 9.99480304743E-01	-6.37272542228E-01	 9.99279596665E-01	-6.24855795154E-01	 1.10671950705E-02	 8.64308142246E+01
4.28090000000E+05	 1.10417269552E-02	 8.69289915230E+01	 9.99419873163E-01	-6.39097872241E-01	 9.99153720536E-01	-6.36852055409E-01	 1.11374680247E-02	 8.65780239331E+01
4.34438000000E+05	 1.12123301896E-02	 8.64738734861E+01	 9.99377830109E-01	-6.60918164680E-01	 9.99367293403E-01	-6.47510986040E-01	 1.13826614137E-02	 8.65729869319E+01
4.40785000000E+05	 1.14658443549E-02	 8.66610026598E+01	 9.99413638317E-01	-6.68565927708E-01	 9.99266095467E-01	-6.49964385671E-01	 1.15001946412E-02	 8.64429731709E+01
4.47133000000E+05	 1.15573718945E-02	 8.64569487586E+01	 9.99390507509E-01	-6.75818795144E-01	 9.99344617416E-01	-6.68018253878E-01	 1.17651217755E-02	 8.67582300142E+01
4.53481000000E+05	 1.17256489816E-02	 8.63446933358E+01	 9.99330595510E-01	-6.87107149372E-01	 9.99263781197E-01	-6.69049918217E-01	 1.18935434315E-02	 8.62240261479E+01
4.59828000000E+05	 1.19214892771E-02	 8.60492808318E+01	 9.99370945026E-01	-6.95582502027E-01	 9.99156595708E-01	-6.86388545343E-01	 1.20196530418E-02	 8.65373693218E+01
4.66176000000E+05	 1.21076647421E-02	 8.67884882888E+01	 9.99380957638E-01	-7.00813706515E-01	 9.99366175199E-01	-6.84300896440E-01	 1.21846090021E-02	 8.68143253033E+01
4.72523000000E+05	 1.24265697349E-02	 8.63156052755E+01	 9.99376283459E-01	-7.02960036299E-01	 9.99268027118E-01	-7.04166761694E-01	 1.23436587502E-02	 8.67566294722E+01
4.78871000000E+05	 1.24374636443E-02	 8.66888984050E+01	 9.99437488307E-01	-7.16513151661E-01	 9.99316080794E-01	-7.27717374888E-01	 1.24987458554E-02	 8.68988867362E+01
4.85219000000E+05	 1.26318842579E-02	 8.62870483504E+01	 9.99346281417E-01	-7.27160621943E-01	 9.99175291547E-01	-7.20916038288E-01	 1.26882495494E-02	 8.64975298600E+01
4.91566000000E+05	 1.28205715218E-02	 8.64351455102E+01	 9.99378284716E-01	-7.37194138927E-01	 9.99253267539E-01	-7.37670673956E-01	 1.28966328041E-02	 8.67744536715E+01
4.97914000000E+05	 1.29053065963E-02	 8.67097921833E+01	 9.99374498387E-01	-7.53252677377E-01	 9.99265609257E-01	-7.43391891624E-01	 1.30709001566E-02	 8.66175202678E+01
5.04261000000E+05	 1.32198940293E-02	 8.66378652787E+01	 9.99384592212E-01	-7.49879586872E-01	 9.99272344994E-01	-7.54519682011E-01	 1.32474819283E-02	 8.69527127559E+01
5.10609000000E+05	 1.33177935335E-02	 8.67602000764E+01	 9.99355179768E-01	-7.80648912913E-01	 9.99309753813E-01	-7.62203658812E-01	 1.33764870088E-02	 8.67464803622E+01
5.16957000000E+05	 1.34125931357E-02	 8.64051435424E+01	 9.99334200258E-01	-7.89319922488E-01	 9.99192219777E-01	-7.81116520057E-01	 1.35498902683E-02	 8.66034254804E+01
5.23304000000E+05	 1.36924225211E-02	 8.68231112706E+01	 9.99345721310E-01	-7.95507777411E-01	 9.99208002982E-01	-7.82998300224E-01	 1.37354685471E-02	 8.64891436867E+01
5.29652000000E+05	 1.37585881883E-02	 8.65373312721E+01	 9.99222893234E-01	-7.91714655086E-01	 9.99325087236E-01	-7.93721434843E-01	 1.38837712695E-02	 8.67491563395E+01
5.35999000000E+05	 1.39979364032E-02	 8.64005032584E+01	 9.99377574867E-01	-8.15777776109E-01	 9.99112316398E-01	-8.03958480271E-01	 1.40088097513E-02	 8.67190980542E+01
5.42347000000E+05	 1.41768280084E-02	 8.66872433303E+01	 9.99395955487E-01	-8.23815446906E-01	 9.99113402368E-01	-8.09297736692E-01	 1.42015238571E-02	 8.66060146882E+01
5.48695000000E+05	 1.43645341645E-02	 8.67217662488E+01	 9.99451872940E-01	-8.25719982291E-01	 9.99109297157E-01	-8.24514193176E-01	 1.43656693202E-02	 8.69115538703E+01
5.55042000000E+05	 1.44607813361E-02	 8.69326445397E+01	 9.99450442428E-01	-8.45806297787E-01	 9.99096779240E-01	-8.29874602654E-01	 1.44996375351E-02	 8.66842586421E+01
5.61390000000E+05	 1.47198126195E-02	 8.65957888657E+01	 9.99427340471E-01	-8.45290282594E-01	 9.99127043337E-01	-8.48351246102E-01	 1.47273870277E-02	 8.70791669726E+01
5.67737000000E+05	 1.48787616126E-02	 8.67152839088E+01	 9.99342354966E-01	-8.60319436883E-01	 9.99205348834E-01	-8.48324194355E-01	 1.48476943506E-02	 8.68652940024E+01
5.75177000000E+05	 1.49185697610E-02	 8.64627817489E+01	 9.99267791889E-01	-8.66690089950E-01	 9.99102196235E-01	-8.64614598865E-01	 1.50460704602E-02	 8.64945400502E+01
5.83966000000E+05	 1.52944975795E-02	 8.68248803853E+01	 9.99274630817E-01	-8.82696325347E-01	 9.99241400658E-01	-8.80031992278E-01	 1.53200823156E-02	 8.67423095688E+01
5.92755000000E+05	 1.54682936716E-02	 8.65952058911E+01	 9.99175669569E-01	-9.02929486120E-01	 9.99132268833E-01	-8.94170249905E-01	 1.55347229381E-02	 8.65988091170E+01
6.01544000000E+05	 1.56590489816E-02	 8.66706610380E+01	 9.99273336482E-01	-9.03345245312E-01	 9.99163495986E-01	-9.05023941804E-01	 1.57036285267E-02	 8.67319653151E+01
6.10333000000E+05	 1.59166296987E-02	 8.69749301963E+01	 9.99313837106E-01	-9.14068254595E-01	 9.99200527660E-01	-9.12960337318E-01	 1.60365081847E-02	 8.68303023642E+01
6.19123000000E+05	 1.60985806838E-02	 8.65736082620E+01	 9.99304497075E-01	-9.39942822613E-01	 9.99055959877E-01	-9.26156964240E-01	 1.61415819386E-02	 8.67433354803E+01
6.27912000000E+05	 1.63585653816E-02	 8.66050429134E+01	 9.99201108906E-01	-9.50620556767E-01	 9.99170102999E-01	-9.43053961052E-01	 1.64449972780E-02	 8.67661873981E+01
6.36701000000E+05	 1.66067301148E-02	 8.67076071812E+01	 9.99115643593E-01	-9.59800080539E-01	 9.99241988705E-01	-9.56759112630E-01	 1.67115921918E-02	 8.67199522021E+01
6.45490000000E+05	 1.68584231773E-02	 8.69305809405E+01	 9.99221390966E-01	-9.61569510340E-01	 9.99170705697E-01	-9.65944347579E-01	 1.68825274363E-02	 8.66560097553E+01
6.54279000000E+05	 1.70970718764E-02	 8.66872463847E+01	 9.99229572542E-01	-9.79028730188E-01	 9.99011530745E-01	-9.78292723404E-01	 1.71367843656E-02	 8.65086207697E+01
6.63069000000E+05	 1.73063162146E-02	 8.67452391190E+01	 9.99291021614E-01	-1.00489840903E+00	 9.99102974753E-01	-9.89809000510E-01	 1.73688610999E-02	 8.70004444907E+01
6.71858000000E+05	 1.75140604567E-02	 8.66728930312E+01	 9.99116766587E-01	-1.01434272933E+00	 9.99055471583E-01	-1.01179513814E+00	 1.76231237802E-02	 8.63856048768E+01
6.80647000000E+05	 1.77714457839E-02	 8.65037510959E+01	 9.99102789334E-01	-1.02164607358E+00	 9.99069265746E-01	-1.02126366209E+00	 1.78262145984E-02	 8.65964727357E+01
6.89436000000E+05	 1.79848248491E-02	 8.68859067103E+01	 9.99243224918E-01	-1.03748304434E+00	 9.99039416951E-01	-1.04026868475E+00	 1.80156880319E-02	 8.66539836177E+01
6.98226000000E+05	 1.82488595535E-02	 8.67497726168E+01	 9.99222873688E-01	-1.05973213807E+00	 9.99004749275E-01	-1.05544242573E+00	 1.83196657389E-02	 8.66901302387E+01
7.07015000000E+05	 1.85038421955E-02	 8.69188040572E+01	 9.99223547998E-01	-1.06639876936E+00	 9.99074584121E-01	-1.06337710818E+00	 1.85606889946E-02	 8.67846372673E+01
7.15804000000E+05	 1.86563659903E-02	 8.69788180196E+01	 9.99302855984E-01	-1.07725338048E+00	 9.98937442923E-01	-1.07127050248E+00	 1.87162096037E-02	 8.67035154056E+01
7.24593000000E+05	 1.89152699672E-02	 8.67899397130E+01	 9.99063460755E-01	-1.08771280262E+00	 9.99120151010E-01	-1.09760595662E+00	 1.90055156366E-02	 8.66374869883E+01
7.33382000000E+05	 1.91365255671E-02	 8.68303306672E+01	 9.99093505114E-01	-1.10571955805E+00	 9.99101898808E-01	-1.10114345289E+00	 1.92365013403E-02	 8.66871611236E+01
7.42172000000E+05	 1.93860060675E-02	 8.65647907047E+01	 9.99130974612E-01	-1.12888062942E+00	 9.98916402696E-01	-1.11928405972E+00	 1.94271262656E-02	 8.65820100632E+01
7.50961000000E+05	 1.95704292197E-02	 8.67606802444E+01	 9.98973414326E-01	-1.12807097240E+00	 9.98982839840E-01	-1.13395116958E+00	 1.95680680042E-02	 8.65903942074E+01
7.59750000000E+05	 1.98261925625E-02	 8.67141847634E+01	 9.99102995613E-01	-1.15490538789E+00	 9.98972331987E-01	-1.14265151708E+00	 1.99279020452E-02	 8.66083232332E+01
7.68539000000E+05	 2.00377292127E-02	 8.67500331714E+01	 9.99052891442E-01	-1.15949512324E+00	 9.99019174212E-01	-1.15211482289E+00	 2.01284764766E-02	 8.66006806504E+01
7.77328000000E+05	 2.02504987186E-02	 8.66617625782E+01	 9.99015989407E-01	-1.18217966039E+00	 9.99014022423E-01	-1.16120663098E+00	 2.03412246241E-02	 8.66068430869E+01
7.86118000000E+05	 2.04671668860E-02	 8.66614073669E+01	 9.99036112264E-01	-1.18796978264E+00	 9.98998292282E-01	-1.18170251988E+00	 2.06361253837E-02	 8.66968143546E+01
7.96418000000E+05	 2.07576055061E-02	 8.67800330272E+01	 9.99009560873E-01	-1.20180632474E+00	 9.98987814337E-01	-1.19786251770E+00	 2.08311517025E-02	 8.65018881826E+01
8.08588000000E+05	 2.10709359243E-02	 8.65628655299E+01	 9.99043998204E-01	-1.22115397143E+00	 9.98896179701E-01	-1.21978496756E+00	 2.11509647631E-02	 8.66419550597E+01
8.20758000000E+05	 2.13943501539E-02	 8.66500569606E+01	 9.98965195285E-01	-1.23764774296E+00	 9.98928052096E-01	-1.23388804034E+00	 2.15179266913E-02	 8.64980939309E+01
8.32928000000E+05	 2.17781465725E-02	 8.66071225292E+01	 9.99057639410E-01	-1.26156259799E+00	 9.98798886898E-01	-1.24601030531E+00	 2.17560392674E-02	 8.65465176615E+01
8.45098000000E+05	 2.21328416209E-02	 8.66296439217E+01	 9.98890796097E-01	-1.27420865248E+00	 9.98946228835E-01	-1.26917600947E+00	 2.21259393507E-02	 8.64995937400E+01
8.57268000000E+05	 2.24419306701E-02	 8.66960900858E+01	 9.99059027568E-01	-1.28917715031E+00	 9.98878179646E-01	-1.28850690970E+00	 2.25082103800E-02	 8.67887505175E+01
8.69438000000E+05	 2.26868368497E-02	 8.64984381255E+01	 9.98945776817E-01	-1.31305981791E+00	 9.98832668445E-01	-1.31083281169E+00	 2.27248789511E-02	 8.65857105564E+01
8.81608000000E+05	 2.29872680463E-02	 8.66996973951E+01	 9.98980038619E-01	-1.33720345536E+00	 9.98872004889E-01	-1.32574285250E+00	 2.30401329943E-02	 8.66221812654E+01
8.93778000000E+05	 2.33483856818E-02	 8.65148353756E+01	 9.98902081800E-01	-1.34635722798E+00	 9.98822908012E-01	-1.34247302362E+00	 2.33926720885E-02	 8.65660418063E+01
9.05948000000E+05	 2.35991533179E-02	 8.65987133836E+01	 9.98962794416E-01	-1.35684609043E+00	 9.98775283873E-01	-1.36294464255E+00	 2.36514259878E-02	 8.65790603611E+01
9.18118000000E+05	 2.39606123773E-02	 8.65746778035E+01	 9.98891461761E-01	-1.38503636484E+00	 9.98829479596E-01	-1.38750411183E+00	 2.40497922708E-02	 8.65991920758E+01
9.30288000000E+05	 2.43266639204E-02	 8.65355979905E+01	 9.98913397507E-01	-1.40147402503E+00	 9.98750021868E-01	-1.39896542414E+00	 2.43486887465E-02	 8.65783126576E+01
9.42458000000E+05	 2.46010522043E-02	 8.67384905564E+01	 9.98867085901E-01	-1.42254782398E+00	 9.98816103905E-01	-1.42181348088E+00	 2.46241330004E-02	 8.64385369760E+01
9.54628000000E+05	 2.49164756234E-02	 8.64714023723E+01	 9.98836233874E-01	-1.44353523562E+00	 9.98729994045E-01	-1.42876424888E+00	 2.49405206223E-02	 8.65003732012E+01
9.66798000000E+05	 2.52384127116E-02	 8.64020193636E+01	 9.98812616716E-01	-1.46015038264E+00	 9.98670690922E-01	-1.45502733047E+00	 2.51970898376E-02	 8.64246788789E+01
9.78968000000E+05	 2.55978218576E-02	 8.64798178397E+01	 9.98823507382E-01	-1.47695856570E+00	 9.98707759075E-01	-1.47118226219E+00	 2.55577570080E-02	 8.65187553217E+01
9.91138000000E+05	 2.58126539255E-02	 8.63870478263E+01	 9.98750663887E-01	-1.49761799410E+00	 9.98691929438E-01	-1.48615567672E+00	 2.59379384046E-02	 8.64618925445E+01
1.00330800000E+06	 2.61860971775E-02	 8.64374044848E+01	 9.98767995712E-01	-1.51754067099E+00	 9.98611503596E-01	-1.51268071922E+00	 2.62537172346E-02	 8.63264815816E+01
1.01547800000E+06	 2.64766454091E-02	 8.64187523516E+01	 9.98700660953E-01	-1.52869413914E+00	 9.98613479228E-01	-1.52701922726E+00	 2.66037906704E-02	 8.62623362365E+01
1.02764800000E+06	 2.67868354720E-02	 8.64951164001E+01	 9.98727916695E-01	-1.54689654132E+00	 9.98621873481E-01	-1.55184454696E+00	 2.67837209348E-02	 8.62797369859E+01
1.03981800000E+06	 2.71039534343E-02	 8.63900833924E+01	 9.98727385900E-01	-1.56564483125E+00	 9.98537259375E-01	-1.56642688614E+00	 2.71250208348E-02	 8.62721721852E+01
1.05198800000E+06	 2.74393797768E-02	 8.63889654358E+01	 9.98775463626E-01	-1.58559457527E+00	 9.98544899570E-01	-1.58038331082E+00	 2.74984757896E-02	 8.64622351508E+01
1.06415800000E+06	 2.77289642220E-02	 8.64373462712E+01	 9.98745051960E-01	-1.60565266030E+00	 9.98573847738E-01	-1.60367653924E+00	 2.77762078808E-02	 8.64271458235E+01
1.07632800000E+06	 2.80875162190E-02	 8.63330255332E+01	 9.98697463541E-01	-1.62543881780E+00	 9.98465440880E-01	-1.61470228512E+00	 2.80933514937E-02	 8.62778308040E+01
1.08849800000E+06	 2.83864988986E-02	 8.63097075826E+01	 9.98584552727E-01	-1.64577972916E+00	 9.98614438746E-01	-1.63988998646E+00	 2.83791351339E-02	 8.63785137372E+01
1.10276000000E+06	 2.87710119613E-02	 8.62627590277E+01	 9.98648561309E-01	-1.66865147223E+00	 9.98444416076E-01	-1.66689561706E+00	 2.87870558635E-02	 8.62845267593E+01
1.11961100000E+06	 2.92204227908E-02	 8.62502395437E+01	 9.98635681752E-01	-1.68567838494E+00	 9.98442948005E-01	-1.68001286263E+00	 2.92503599606E-02	 8.63532850646E+01
1.13646300000E+06	 2.96152765282E-02	 8.63238971000E+01	 9.98616754699E-01	-1.70691907054E+00	 9.98465410797E-01	-1.70347928804E+00	 2.96804990498E-02	 8.63399540867E+01
1.15331400000E+06	 3.00945649021E-02	 8.62051120943E+01	 9.98531820408E-01	-1.72958284126E+00	 9.98411402881E-01	-1.72991259490E+00	 3.01600629680E-02	 8.62577000623E+01
1.17016500000E+06	 3.05898174160E-02	 8.62388854692E+01	 9.98514685076E-01	-1.75782272473E+00	 9.98400657020E-01	-1.75765571433E+00	 3.05009438929E-02	 8.62199852747E+01
1.18701600000E+06	 3.10127430057E-02	 8.61936135862E+01	 9.98490589695E-01	-1.79317346812E+00	 9.98374347571E-01	-1.78392960345E+00	 3.10764829404E-02	 8.62305821344E+01
1.20386700000E+06	 3.13841570513E-02	 8.61073194401E+01	 9.98416296252E-01	-1.81514905354E+00	 9.98385531181E-01	-1.80513080279E+00	 3.14267145229E-02	 8.62392547379E+01
1.22071800000E+06	 3.18065588999E-02	 8.62089797645E+01	 9.98520745073E-01	-1.83510602407E+00	 9.98241003574E-01	-1.83135768704E+00	 3.18365686518E-02	 8.61504888161E+01
1.23757000000E+06	 3.23020368017E-02	 8.61251397450E+01	 9.98472371569E-01	-1.85820746803E+00	 9.98237203002E-01	-1.86169371119E+00	 3.23339802439E-02	 8.61964925305E+01
1.25442100000E+06	 3.26780585320E-02	 8.61661742871E+01	 9.98322366194E-01	-1.89104391706E+00	 9.98346656769E-01	-1.88427273221E+00	 3.26793894435E-02	 8.60918446380E+01
1.27127200000E+06	 3.31842873873E-02	 8.61272786814E+01	 9.98392796118E-01	-1.91798071530E+00	 9.98215196928E-01	-1.91521944453E+00	 3.32130023383E-02	 8.61007678286E+01
1.28812300000E+06	 3.36258378104E-02	 8.60713547781E+01	 9.98278923994E-01	-1.93742750488E+00	 9.98171929715E-01	-1.93285073081E+00	 3.36617686309E-02	 8.59468641422E+01
1.30497400000E+06	 3.40446159600E-02	 8.59366475621E+01	 9.98268069487E-01	-1.96440212258E+00	 9.98141983973E-01	-1.95902832886E+00	 3.39763487212E-02	 8.60484863525E+01
1.32182500000E+06	 3.44705825985E-02	 8.60318379122E+01	 9.98295269054E-01	-1.99285003856E+00	 9.98130372135E-01	-1.98992147815E+00	 3.44675110890E-02	 8.60291575740E+01
1.33867600000E+06	 3.49022882172E-02	 8.59655582016E+01	 9.98249606412E-01	-2.01366562499E+00	 9.98072226715E-01	-2.00492241776E+00	 3.49463767618E-02	 8.59943660412E+01
1.35552800000E+06	 3.53228932600E-02	 8.58748217879E+01	 9.98116111924E-01	-2.04345457790E+00	 9.98103617217E-01	-2.02804340466E+00	 3.53124901688E-02	 8.59449939747E+01
1.37237900000E+06	 3.57600656002E-02	 8.58293280334E+01	 9.98090580632E-01	-2.06606538861E+00	 9.97957901883E-01	-2.05987763695E+00	 3.58081461175E-02	 8.57740342569E+01
1.38923000000E+06	 3.62055434911E-02	 8.58365081546E+01	 9.98086501748E-01	-2.09032558665E+00	 9.98020183533E-01	-2.07865038458E+00	 3.61858188647E-02	 8.59072831850E+01
1.40608100000E+06	 3.66558858219E-02	 8.56990407765E+01	 9.98096474922E-01	-2.11359451291E+00	 9.97933572748E-01	-2.10848150411E+00	 3.66348956051E-02	 8.59797336190E+01
1.42293200000E+06	 3.70560727022E-02	 8.58187413177E+01	 9.98059831442E-01	-2.13929633287E+00	 9.97916677152E-01	-2.13256395349E+00	 3.71157777876E-02	 8.58254786742E+01
1.43978300000E+06	 3.74743522701E-02	 8.56034867753E+01	 9.97901587375E-01	-2.16862090421E+00	 9.97824015557E-01	-2.16770517137E+00	 3.75427636122E-02	 8.56824261241E+01
1.45663500000E+06	 3.79470204023E-02	 8.56256052373E+01	 9.97963512533E-01	-2.18370297897E+00	 9.97788683723E-01	-2.18755064002E+00	 3.79171358231E-02	 8.57686048481E+01
1.47348600000E+06	 3.83056142455E-02	 8.57485589592E+01	 9.97894544907E-01	-2.21280670615E+00	 9.97836596337E-01	-2.21216343242E+00	 3.84042288948E-02	 8.56505433581E+01
1.49033700000E+06	 3.88243013799E-02	 8.56441585185E+01	 9.97929076717E-01	-2.23202702917E+00	 9.97776028181E-01	-2.23395776626E+00	 3.88663479334E-02	 8.57874261270E+01
1.50718800000E+06	 3.92627379525E-02	 8.56359018325E+01	 9.97793490214E-01	-2.26621217014E+00	 9.97732394640E-01	-2.26390955130E+00	 3.92699950006E-02	 8.55559403528E+01
1.52693700000E+06	 3.97415145986E-02	 8.56488281395E+01	 9.97800080520E-01	-2.29384817236E+00	 9.97699024394E-01	-2.29175416282E+00	 3.98254242779E-02	 8.55668969854E+01
1.55027000000E+06	 4.03225325986E-02	 8.55648887513E+01	 9.97771419986E-01	-2.32655808587E+00	 9.97621162528E-01	-2.32619534277E+00	 4.03861207709E-02	 8.55588429704E+01
1.57360300000E+06	 4.08644937830E-02	 8.55529978298E+01	 9.97700303408E-01	-2.36569848507E+00	 9.97656162178E-01	-2.36018827964E+00	 4.09598363421E-02	 8.55645273661E+01
1.59693600000E+06	 4.15065920350E-02	 8.54812759171E+01	 9.97671116061E-01	-2.39396516066E+00	 9.97527313620E-01	-2.40219011183E+00	 4.15259275626E-02	 8.54790080371E+01
1.62026900000E+06	 4.21218814074E-02	 8.54493028463E+01	 9.97599362862E-01	-2.42411068740E+00	 9.97488816791E-01	-2.43298249853E+00	 4.21472079414E-02	 8.54307625756E+01
1.64360200000E+06	 4.27654618013E-02	 8.53202115348E+01	 9.97535865279E-01	-2.46088251229E+00	 9.97368666453E-01	-2.46458029863E+00	 4.27987463582E-02	 8.53866308951E+01
1.66693500000E+06	 4.33642570694E-02	 8.52861389788E+01	 9.97512457144E-01	-2.50516503594E+00	 9.97328582598E-01	-2.50086125883E+00	 4.33518557443E-02	 8.53808320043E+01
1.69026700000E+06	 4.39205430284E-02	 8.53514983568E+01	 9.97422469910E-01	-2.53713613559E+00	 9.97442185932E-01	-2.53515701548E+00	 4.39497387964E-02	 8.53963102450E+01
1.71360000000E+06	 4.45296564764E-02	 8.52659615315E+01	 9.97444900362E-01	-2.56691874579E+00	 9.97236846342E-01	-2.56013571780E+00	 4.45608724709E-02	 8.53265517047E+01
1.73693300000E+06	 4.51254756159E-02	 8.51447985235E+01	 9.97246735432E-01	-2.60382595467E+00	 9.97265062886E-01	-2.60366471189E+00	 4.50872085752E-02	 8.52601202323E+01
1.76026600000E+06	 4.57344494770E-02	 8.51920155792E+01	 9.97259456149E-01	-2.63805629735E+00	 9.97169681094E-01	-2.63280056359E+00	 4.57377438384E-02	 8.51792224188E+01
1.78359900000E+06	 4.63134862273E-02	 8.51688495764E+01	 9.97205464390E-01	-2.66574102788E+00	 9.97171463349E-01	-2.67209709239E+00	 4.63677225534E-02	 8.51959243167E+01
1.80693200000E+06	 4.69490350886E-02	 8.51280653557E+01	 9.97238952176E-01	-2.71106589195E+00	 9.96979847264E-01	-2.70394247125E+00	 4.69264890606E-02	 8.50998577421E+01
1.83026500000E+06	 4.75352520863E-02	 8.50160787080E+01	 9.97012539553E-01	-2.73864330235E+00	 9.97040417737E-01	-2.73757851440E+00	 4.74919550920E-02	 8.50577595087E+01
1.85359800000E+06	 4.81183270333E-02	 8.50052350278E+01	 9.97105517083E-01	-2.77058346341E+00	 9.96786915340E-01	-2.78308054146E+00	 4.81151657004E-02	 8.49398744252E+01
1.87693100000E+06	 4.86982472849E-02	 8.49644448928E+01	 9.97033040872E-01	-2.81239529597E+00	 9.96812420413E-01	-2.81360863412E+00	 4.87711763346E-02	 8.49733002439E+01
1.90026400000E+06	 4.93002771250E-02	 8.49043621505E+01	 9.96889011112E-01	-2.84526768058E+00	 9.96841368843E-01	-2.83594037247E+00	 4.92978610885E-02	 8.49514299179E+01
1.92359700000E+06	 4.99332158355E-02	 8.48580801615E+01	 9.96816785066E-01	-2.88318656440E+00	 9.96695519383E-01	-2.86994304403E+00	 4.98606039151E-02	 8.47991013099E+01
1.94693000000E+06	 5.05004640667E-02	 8.48404506335E+01	 9.96869674493E-01	-2.90668038860E+00	 9.96615441226E-01	-2.91235527839E+00	 5.05403639592E-02	 8.48545612580E+01
1.97026300000E+06	 5.10941212423E-02	 8.48447066003E+01	 9.96745308431E-01	-2.94518164704E+00	 9.96608085553E-01	-2.94480283639E+00	 5.10684838904E-02	 8.47379522350E+01
1.99359600000E+06	 5.16822358672E-02	 8.46965752720E+01	 9.96567383261E-01	-2.98142880853E+00	 9.96598361056E-01	-2.98070933230E+00	 5.17199134954E-02	 8.47282006014E+01
2.01692900000E+06	 5.22511047649E-02	 8.46948546904E+01	 9.96632998139E-01	-3.01785736488E+00	 9.96504636487E-01	-3.01371700253E+00	 5.23398184647E-02	 8.47530039090E+01
2.04026200000E+06	 5.28788991553E-02	 8.46279886080E+01	 9.96543366706E-01	-3.05373923915E+00	 9.96400773852E-01	-3.04794581795E+00	 5.29198707975E-02	 8.46599219796E+01
2.06359500000E+06	 5.34696387913E-02	 8.46480841742E+01	 9.96415180874E-01	-3.08928771934E+00	 9.96447919470E-01	-3.08062469245E+00	 5.35140553897E-02	 8.46010393829E+01
2.08692800000E+06	 5.40977138363E-02	 8.45470172829E+01	 9.96414301576E-01	-3.11441075381E+00	 9.96277810854E-01	-3.12236420699E+00	 5.40939538038E-02	 8.45757946353E+01
2.11427300000E+06	 5.47905569868E-02	 8.45154504344E+01	 9.96296767835E-01	-3.16173238608E+00	 9.96242926868E-01	-3.15222839770E+00	 5.47867437099E-02	 8.45063614093E+01
2.14658100000E+06	 5.54840507741E-02	 8.44201652149E+01	 9.96202100700E-01	-3.20454269625E+00	 9.96125739069E-01	-3.20316000303E+00	 5.55752633958E-02	 8.44369054929E+01
2.17888900000E+06	 5.63672532235E-02	 8.43978069652E+01	 9.96106162106E-01	-3.24932066524E+00	 9.96049590783E-01	-3.25245696182E+00	 5.64599911905E-02	 8.43647923305E+01
2.21119700000E+06	 5.72359073704E-02	 8.43078190123E+01	 9.96081974905E-01	-3.29653298215E+00	 9.95934130498E-01	-3.29769096997E+00	 5.72852132556E-02	 8.43903624532E+01
2.24350500000E+06	 5.80159745608E-02	 8.42268924564E+01	 9.95935482986E-01	-3.34695588448E+00	 9.95799096969E-01	-3.34903597023E+00	 5.79696325694E-02	 8.42332711030E+01
2.27581300000E+06	 5.88207212232E-02	 8.41832938567E+01	 9.95810406627E-01	-3.39687232738E+00	 9.95789274118E-01	-3.39553349342E+00	 5.88990273712E-02	 8.42178034232E+01
2.30812100000E+06	 5.96306238145E-02	 8.41287561323E+01	 9.95765966254E-01	-3.45136367272E+00	 9.95650757498E-01	-3.44529187981E+00	 5.96703582292E-02	 8.41467519135E+01
2.34042900000E+06	 6.05116992559E-02	 8.40994693035E+01	 9.95671701381E-01	-3.48929341286E+00	 9.95538195340E-01	-3.48463340562E+00	 6.05425206660E-02	 8.40728587487E+01
2.37273700000E+06	 6.13300736235E-02	 8.40348581442E+01	 9.95558743255E-01	-3.53790474993E+00	 9.95387972779E-01	-3.53431634464E+00	 6.13055855386E-02	 8.39593026549E+01
2.40504500000E+06	 6.21533757297E-02	 8.39472973582E+01	 9.95511267183E-01	-3.58827933227E+00	 9.95309614151E-01	-3.58451858406E+00	 6.21564143922E-02	 8.39804224534E+01
2.43735300000E+06	 6.29264236550E-02	 8.38771219926E+01	 9.95323659803E-01	-3.63298947357E+00	 9.95278679166E-01	-3.62900918295E+00	 6.29501123205E-02	 8.39091626677E+01
2.46966100000E+06	 6.37328495924E-02	 8.37851851859E+01	 9.95213886194E-01	-3.67375301578E+00	 9.95148710435E-01	-3.67538673423E+00	 6.37510680926E-02	 8.38523307510E+01